  TITLE = "SPECTRUM" 
  VARIABLES = "NUMBER","PT_FAR","PT_NEAR","PT","PL_FAR","PL_NEAR","PL","P_TOTAL"  
  ZONE I=          201 ,F=POINT 
	1 	0.870 	0.150 	1.025 	-0.410 	-0.280 	-0.688 	0.337 
	2 	0.870 	0.150 	1.022 	-0.390 	-0.290 	-0.678 	0.345 
	3 	0.870 	0.150 	1.020 	-0.380 	-0.290 	-0.667 	0.353 
	4 	0.860 	0.160 	1.019 	-0.360 	-0.290 	-0.657 	0.362 
	5 	0.860 	0.160 	1.018 	-0.350 	-0.300 	-0.647 	0.371 
	6 	0.860 	0.160 	1.018 	-0.340 	-0.300 	-0.637 	0.381 
	7 	0.860 	0.160 	1.019 	-0.320 	-0.300 	-0.626 	0.393 
	8 	0.860 	0.160 	1.020 	-0.310 	-0.310 	-0.615 	0.405 
	9 	0.860 	0.160 	1.022 	-0.290 	-0.310 	-0.604 	0.418 
	10 	0.860 	0.160 	1.024 	-0.280 	-0.310 	-0.592 	0.432 
	11 	0.860 	0.160 	1.028 	-0.260 	-0.320 	-0.581 	0.447 
	12 	0.870 	0.160 	1.032 	-0.250 	-0.320 	-0.568 	0.464 
	13 	0.870 	0.170 	1.037 	-0.230 	-0.320 	-0.556 	0.481 
	14 	0.870 	0.170 	1.042 	-0.210 	-0.330 	-0.542 	0.500 
	15 	0.880 	0.170 	1.049 	-0.200 	-0.330 	-0.529 	0.519 
	16 	0.880 	0.170 	1.056 	-0.180 	-0.330 	-0.515 	0.541 
	17 	0.890 	0.170 	1.064 	-0.160 	-0.340 	-0.500 	0.564 
	18 	0.900 	0.180 	1.073 	-0.150 	-0.340 	-0.486 	0.587 
	19 	0.900 	0.180 	1.083 	-0.130 	-0.340 	-0.470 	0.612 
	20 	0.910 	0.180 	1.093 	-0.110 	-0.350 	-0.453 	0.640 
	21 	0.920 	0.180 	1.105 	-0.090 	-0.350 	-0.438 	0.667 
	22 	0.930 	0.190 	1.117 	-0.070 	-0.350 	-0.421 	0.696 
	23 	0.940 	0.190 	1.131 	-0.050 	-0.350 	-0.404 	0.727 
	24 	0.950 	0.190 	1.145 	-0.030 	-0.360 	-0.385 	0.760 
	25 	0.960 	0.200 	1.161 	-0.010 	-0.360 	-0.364 	0.796 
	26 	0.980 	0.200 	1.177 	0.020 	-0.360 	-0.345 	0.832 
	27 	0.990 	0.210 	1.195 	0.040 	-0.360 	-0.325 	0.870 
	28 	1.000 	0.210 	1.214 	0.060 	-0.370 	-0.305 	0.909 
	29 	1.020 	0.220 	1.234 	0.080 	-0.370 	-0.284 	0.950 
	30 	1.040 	0.220 	1.256 	0.110 	-0.370 	-0.263 	0.992 
	31 	1.050 	0.230 	1.278 	0.130 	-0.370 	-0.241 	1.037 
	32 	1.070 	0.230 	1.303 	0.160 	-0.380 	-0.219 	1.084 
	33 	1.090 	0.240 	1.328 	0.180 	-0.380 	-0.197 	1.132 
	34 	1.110 	0.240 	1.356 	0.200 	-0.380 	-0.174 	1.181 
	35 	1.130 	0.250 	1.385 	0.230 	-0.380 	-0.152 	1.233 
	36 	1.160 	0.260 	1.415 	0.250 	-0.380 	-0.129 	1.286 
	37 	1.180 	0.270 	1.448 	0.280 	-0.380 	-0.106 	1.342 
	38 	1.210 	0.270 	1.482 	0.300 	-0.390 	-0.083 	1.399 
	39 	1.240 	0.280 	1.519 	0.330 	-0.390 	-0.059 	1.459 
	40 	1.270 	0.290 	1.557 	0.350 	-0.390 	-0.035 	1.522 
	41 	1.300 	0.300 	1.598 	0.380 	-0.390 	-0.011 	1.587 
	42 	1.330 	0.310 	1.642 	0.410 	-0.390 	0.014 	1.655 
	43 	1.360 	0.320 	1.687 	0.430 	-0.390 	0.039 	1.726 
	44 	1.400 	0.340 	1.736 	0.460 	-0.400 	0.064 	1.800 
	45 	1.440 	0.350 	1.788 	0.490 	-0.400 	0.090 	1.878 
	46 	1.480 	0.360 	1.843 	0.510 	-0.400 	0.116 	1.959 
	47 	1.520 	0.380 	1.901 	0.540 	-0.400 	0.143 	2.044 
	48 	1.570 	0.390 	1.962 	0.570 	-0.400 	0.170 	2.133 
	49 	1.620 	0.410 	2.028 	0.600 	-0.400 	0.199 	2.227 
	50 	1.670 	0.430 	2.098 	0.630 	-0.400 	0.227 	2.325 
	51 	1.730 	0.450 	2.172 	0.660 	-0.400 	0.257 	2.429 
	52 	1.790 	0.470 	2.251 	0.690 	-0.400 	0.288 	2.539 
	53 	1.850 	0.490 	2.335 	0.720 	-0.400 	0.321 	2.656 
	54 	1.910 	0.510 	2.425 	0.760 	-0.400 	0.354 	2.780 
	55 	1.990 	0.540 	2.521 	0.800 	-0.410 	0.390 	2.911 
	56 	2.060 	0.560 	2.624 	0.830 	-0.410 	0.428 	3.052 
	57 	2.140 	0.590 	2.734 	0.870 	-0.410 	0.467 	3.201 
	58 	2.230 	0.620 	2.851 	0.910 	-0.410 	0.509 	3.360 
	59 	2.320 	0.660 	2.978 	0.960 	-0.400 	0.553 	3.530 
	60 	2.420 	0.700 	3.113 	1.000 	-0.400 	0.599 	3.712 
	61 	2.520 	0.740 	3.259 	1.050 	-0.400 	0.649 	3.908 
	62 	2.640 	0.780 	3.416 	1.100 	-0.400 	0.698 	4.114 
	63 	2.760 	0.830 	3.586 	1.150 	-0.400 	0.748 	4.334 
	64 	2.890 	0.880 	3.769 	1.200 	-0.400 	0.802 	4.570 
	65 	3.030 	0.940 	3.967 	1.250 	-0.390 	0.857 	4.824 
	66 	3.180 	1.000 	4.182 	1.310 	-0.390 	0.915 	5.097 
	67 	3.350 	1.070 	4.416 	1.360 	-0.390 	0.976 	5.392 
	68 	3.530 	1.140 	4.670 	1.430 	-0.390 	1.040 	5.710 
	69 	3.720 	1.230 	4.948 	1.490 	-0.380 	1.115 	6.063 
	70 	3.930 	1.320 	5.251 	1.570 	-0.370 	1.195 	6.446 
	71 	4.160 	1.420 	5.584 	1.650 	-0.370 	1.279 	6.863 
	72 	4.410 	1.530 	5.949 	1.730 	-0.360 	1.371 	7.321 
	73 	4.690 	1.660 	6.352 	1.820 	-0.350 	1.469 	7.821 
	74 	4.990 	1.810 	6.796 	1.920 	-0.340 	1.574 	8.370 
	75 	5.320 	1.970 	7.288 	2.020 	-0.330 	1.686 	8.974 
	76 	5.680 	2.150 	7.834 	2.130 	-0.320 	1.807 	9.641 
	77 	6.080 	2.360 	8.443 	2.240 	-0.310 	1.937 	10.380 
	78 	6.520 	2.600 	9.123 	2.370 	-0.290 	2.082 	11.205 
	79 	7.010 	2.880 	9.885 	2.510 	-0.270 	2.238 	12.123 
	80 	7.550 	3.190 	10.741 	2.660 	-0.250 	2.412 	13.153 
	81 	8.140 	3.570 	11.706 	2.820 	-0.220 	2.603 	14.309 
	82 	8.800 	4.000 	12.798 	3.010 	-0.190 	2.820 	15.618 
	83 	9.520 	4.520 	14.034 	3.210 	-0.150 	3.067 	17.100 
	84 	10.310 	5.130 	15.436 	3.440 	-0.100 	3.346 	18.783 
	85 	11.160 	5.870 	17.028 	3.700 	-0.040 	3.656 	20.684 
	86 	12.060 	6.770 	18.829 	3.980 	0.030 	4.010 	22.839 
	87 	12.980 	7.870 	20.856 	4.290 	0.110 	4.405 	25.260 
	88 	13.860 	9.250 	23.104 	4.620 	0.220 	4.839 	27.942 
	89 	14.550 	10.980 	25.528 	4.950 	0.350 	5.303 	30.832 
	90 	14.820 	13.180 	27.995 	5.270 	0.520 	5.787 	33.782 
	91 	14.180 	16.000 	30.178 	5.540 	0.720 	6.265 	36.443 
	92 	11.720 	19.630 	31.354 	5.770 	0.990 	6.761 	38.115 
	93 	5.770 	24.240 	30.008 	6.020 	1.330 	7.353 	37.360 
	94 	-6.670 	29.820 	23.143 	6.290 	1.770 	8.059 	31.202 
	95 	-30.030 	35.630 	5.606 	6.460 	2.340 	8.796 	14.402 
	96 	-68.140 	39.290 	-28.847 	6.470 	3.130 	9.599 	-19.249 
	97 	-117.280 	36.240 	-81.045 	6.030 	4.090 	10.113 	-70.932 
	98 	-159.410 	22.500 	-136.903 	4.780 	5.140 	9.919 	-126.984 
	99 	-171.400 	-0.030 	-171.426 	2.160 	6.140 	8.291 	-163.135 
	100 	-145.840 	-23.520 	-169.360 	-1.760 	6.610 	4.842 	-164.519 
	101 	-95.830 	-40.010 	-135.842 	-5.450 	6.320 	0.871 	-134.971 
	102 	-43.240 	-46.250 	-89.499 	-7.410 	5.420 	-1.994 	-91.493 
	103 	-3.760 	-44.280 	-48.040 	-7.660 	4.340 	-3.321 	-51.360 
	104 	18.920 	-38.340 	-19.421 	-6.850 	3.400 	-3.444 	-22.865 
	105 	29.230 	-31.690 	-2.455 	-5.700 	2.720 	-2.980 	-5.434 
	106 	32.470 	-25.760 	6.712 	-4.780 	2.280 	-2.499 	4.213 
	107 	32.200 	-20.900 	11.303 	-4.020 	1.990 	-2.038 	9.266 
	108 	30.400 	-17.040 	13.354 	-3.410 	1.780 	-1.629 	11.726 
	109 	28.030 	-14.000 	14.027 	-2.910 	1.630 	-1.280 	12.747 
	110 	25.560 	-11.600 	13.964 	-2.510 	1.520 	-0.992 	12.972 
	111 	23.210 	-9.680 	13.523 	-2.190 	1.430 	-0.759 	12.765 
	112 	21.050 	-8.150 	12.899 	-1.920 	1.350 	-0.571 	12.328 
	113 	19.100 	-6.900 	12.201 	-1.710 	1.280 	-0.424 	11.778 
	114 	17.370 	-5.880 	11.489 	-1.530 	1.220 	-0.308 	11.181 
	115 	15.830 	-5.030 	10.794 	-1.390 	1.170 	-0.219 	10.575 
	116 	14.470 	-4.330 	10.134 	-1.270 	1.120 	-0.145 	9.989 
	117 	13.260 	-3.740 	9.515 	-1.160 	1.080 	-0.088 	9.427 
	118 	12.190 	-3.250 	8.940 	-1.080 	1.030 	-0.055 	8.886 
	119 	11.240 	-2.830 	8.409 	-1.020 	0.990 	-0.031 	8.378 
	120 	10.390 	-2.470 	7.920 	-0.960 	0.940 	-0.018 	7.902 
	121 	9.630 	-2.160 	7.469 	-0.910 	0.900 	-0.010 	7.460 
	122 	8.940 	-1.890 	7.055 	-0.880 	0.860 	-0.014 	7.041 
	123 	8.330 	-1.660 	6.673 	-0.850 	0.830 	-0.022 	6.652 
	124 	7.780 	-1.460 	6.322 	-0.820 	0.790 	-0.035 	6.287 
	125 	7.280 	-1.280 	5.998 	-0.810 	0.750 	-0.053 	5.945 
	126 	6.830 	-1.130 	5.699 	-0.790 	0.720 	-0.070 	5.629 
	127 	6.410 	-0.990 	5.423 	-0.770 	0.680 	-0.088 	5.334 
	128 	6.040 	-0.870 	5.166 	-0.760 	0.650 	-0.107 	5.060 
	129 	5.690 	-0.770 	4.929 	-0.750 	0.620 	-0.127 	4.802 
	130 	5.380 	-0.670 	4.708 	-0.730 	0.590 	-0.143 	4.565 
	131 	5.090 	-0.590 	4.503 	-0.720 	0.560 	-0.163 	4.340 
	132 	4.830 	-0.510 	4.312 	-0.720 	0.530 	-0.184 	4.128 
	133 	4.580 	-0.450 	4.133 	-0.710 	0.510 	-0.203 	3.930 
	134 	4.350 	-0.390 	3.967 	-0.700 	0.480 	-0.222 	3.744 
	135 	4.150 	-0.340 	3.811 	-0.700 	0.450 	-0.243 	3.568 
	136 	3.950 	-0.290 	3.664 	-0.690 	0.430 	-0.260 	3.405 
	137 	3.770 	-0.240 	3.527 	-0.680 	0.400 	-0.279 	3.249 
	138 	3.600 	-0.210 	3.398 	-0.680 	0.380 	-0.297 	3.101 
	139 	3.450 	-0.170 	3.277 	-0.680 	0.360 	-0.316 	2.961 
	140 	3.300 	-0.140 	3.163 	-0.670 	0.340 	-0.335 	2.828 
	141 	3.170 	-0.110 	3.055 	-0.670 	0.320 	-0.353 	2.702 
	142 	3.040 	-0.090 	2.953 	-0.670 	0.300 	-0.371 	2.582 
	143 	2.920 	-0.060 	2.857 	-0.670 	0.280 	-0.389 	2.468 
	144 	2.810 	-0.040 	2.766 	-0.660 	0.260 	-0.406 	2.360 
	145 	2.700 	-0.020 	2.679 	-0.660 	0.240 	-0.424 	2.256 
	146 	2.600 	-0.010 	2.598 	-0.660 	0.220 	-0.441 	2.156 
	147 	2.510 	0.010 	2.520 	-0.660 	0.200 	-0.459 	2.061 
	148 	2.420 	0.020 	2.446 	-0.660 	0.190 	-0.476 	1.970 
	149 	2.340 	0.040 	2.376 	-0.660 	0.170 	-0.495 	1.882 
	150 	2.260 	0.050 	2.310 	-0.660 	0.150 	-0.515 	1.795 
	151 	2.190 	0.060 	2.246 	-0.670 	0.130 	-0.532 	1.714 
	152 	2.120 	0.070 	2.186 	-0.670 	0.120 	-0.550 	1.635 
	153 	2.050 	0.080 	2.128 	-0.670 	0.100 	-0.567 	1.561 
	154 	1.990 	0.080 	2.073 	-0.670 	0.090 	-0.584 	1.489 
	155 	1.930 	0.090 	2.021 	-0.670 	0.070 	-0.598 	1.423 
	156 	1.870 	0.100 	1.970 	-0.670 	0.060 	-0.611 	1.359 
	157 	1.820 	0.100 	1.922 	-0.670 	0.050 	-0.625 	1.297 
	158 	1.770 	0.110 	1.877 	-0.670 	0.040 	-0.637 	1.240 
	159 	1.720 	0.110 	1.833 	-0.680 	0.020 	-0.651 	1.182 
	160 	1.670 	0.120 	1.791 	-0.680 	0.010 	-0.664 	1.127 
	161 	1.630 	0.120 	1.750 	-0.680 	0.000 	-0.677 	1.073 
	162 	1.590 	0.120 	1.712 	-0.680 	-0.010 	-0.690 	1.022 
	163 	1.550 	0.130 	1.675 	-0.680 	-0.020 	-0.702 	0.973 
	164 	1.510 	0.130 	1.640 	-0.680 	-0.030 	-0.713 	0.926 
	165 	1.470 	0.130 	1.606 	-0.680 	-0.040 	-0.724 	0.882 
	166 	1.440 	0.130 	1.573 	-0.680 	-0.050 	-0.735 	0.839 
	167 	1.410 	0.140 	1.542 	-0.680 	-0.060 	-0.745 	0.797 
	168 	1.370 	0.140 	1.512 	-0.680 	-0.070 	-0.754 	0.758 
	169 	1.340 	0.140 	1.483 	-0.680 	-0.080 	-0.762 	0.721 
	170 	1.310 	0.140 	1.456 	-0.680 	-0.090 	-0.770 	0.685 
	171 	1.290 	0.140 	1.429 	-0.680 	-0.100 	-0.778 	0.652 
	172 	1.260 	0.140 	1.404 	-0.670 	-0.110 	-0.782 	0.622 
	173 	1.240 	0.140 	1.380 	-0.670 	-0.120 	-0.789 	0.591 
	174 	1.210 	0.140 	1.356 	-0.670 	-0.130 	-0.794 	0.563 
	175 	1.190 	0.150 	1.334 	-0.660 	-0.130 	-0.798 	0.536 
	176 	1.170 	0.150 	1.312 	-0.660 	-0.140 	-0.800 	0.512 
	177 	1.150 	0.150 	1.292 	-0.650 	-0.150 	-0.804 	0.488 
	178 	1.130 	0.150 	1.272 	-0.650 	-0.160 	-0.806 	0.467 
	179 	1.110 	0.150 	1.254 	-0.640 	-0.160 	-0.807 	0.447 
	180 	1.090 	0.150 	1.236 	-0.640 	-0.170 	-0.807 	0.428 
	181 	1.070 	0.150 	1.219 	-0.630 	-0.180 	-0.804 	0.415 
	182 	1.050 	0.150 	1.202 	-0.620 	-0.180 	-0.805 	0.398 
	183 	1.040 	0.150 	1.187 	-0.610 	-0.190 	-0.803 	0.383 
	184 	1.020 	0.150 	1.172 	-0.600 	-0.200 	-0.801 	0.371 
	185 	1.010 	0.150 	1.158 	-0.600 	-0.200 	-0.799 	0.359 
	186 	1.000 	0.150 	1.144 	-0.590 	-0.210 	-0.795 	0.349 
	187 	0.980 	0.150 	1.132 	-0.580 	-0.210 	-0.791 	0.340 
	188 	0.970 	0.150 	1.120 	-0.570 	-0.220 	-0.787 	0.333 
	189 	0.960 	0.150 	1.109 	-0.550 	-0.220 	-0.777 	0.332 
	190 	0.950 	0.150 	1.098 	-0.540 	-0.230 	-0.773 	0.325 
	191 	0.940 	0.150 	1.088 	-0.530 	-0.240 	-0.767 	0.321 
	192 	0.930 	0.150 	1.079 	-0.520 	-0.240 	-0.760 	0.319 
	193 	0.920 	0.150 	1.070 	-0.510 	-0.250 	-0.753 	0.317 
	194 	0.910 	0.150 	1.062 	-0.490 	-0.250 	-0.746 	0.317 
	195 	0.900 	0.150 	1.055 	-0.480 	-0.260 	-0.738 	0.317 
	196 	0.900 	0.150 	1.049 	-0.470 	-0.260 	-0.730 	0.318 
	197 	0.890 	0.150 	1.043 	-0.460 	-0.270 	-0.722 	0.320 
	198 	0.890 	0.150 	1.037 	-0.440 	-0.270 	-0.714 	0.323 
	199 	0.880 	0.150 	1.033 	-0.430 	-0.270 	-0.705 	0.327 
	200 	0.880 	0.150 	1.028 	-0.420 	-0.280 	-0.697 	0.332 
	201 	0.870 	0.150 	1.025 	-0.410 	-0.280 	-0.688 	0.337 
