  TITLE = "SPECTRUM" 
  VARIABLES = "time","PT_FAR","PT_NEAR","PT","PL_FAR","PL_NEAR","PL","P_TOTAL"
  ZONE I=          81 ,F=POINT 
0.012345679	  1.220 	2.150 	3.372 	9.810 	24.500 	34.311 	37.682        
0.024691358	  1.240 	2.120 	3.353 	9.880 	24.740 	34.612 	37.965        
0.037037037	  1.250 	2.090 	3.341 	9.960 	25.130 	35.087 	38.428        
0.049382716	  1.270 	2.060 	3.334 	10.050 	25.670 	35.716 	39.050        
0.061728395	  1.290 	2.040 	3.331 	10.140 	26.360 	36.497 	39.828        
0.074074074	  1.300 	2.030 	3.331 	10.220 	27.200 	37.419 	40.750        
0.086419753	  1.310 	2.020 	3.333 	10.260 	28.200 	38.458 	41.792        
0.098765432	  1.320 	2.010 	3.336 	10.250 	29.350 	39.599 	42.935        
0.111111111	  1.330 	2.010 	3.339 	10.170 	30.650 	40.815 	44.153        
0.12345679	  1.330 	2.010 	3.338 	10.070 	32.110 	42.181 	45.518        
0.135802469	  1.320 	2.010 	3.332 	10.030 	33.740 	43.763 	47.095        
0.148148148	  1.310 	2.010 	3.318 	10.020 	35.550 	45.571 	48.889        
0.160493827	  1.290 	2.010 	3.292 	10.060 	37.560 	47.618 	50.910        
0.172839506	  1.250 	2.000 	3.251 	10.130 	39.790 	49.922 	53.173        
0.185185185	  1.210 	1.980 	3.188 	10.250 	42.060 	52.310 	55.499        
0.197530864	  1.150 	1.950 	3.099 	10.390 	44.790 	55.176 	58.275        
0.209876543	  1.070 	1.910 	2.976 	10.560 	47.850 	58.413 	61.390        
0.222222222	  0.970 	1.840 	2.812 	10.780 	51.230 	62.010 	64.822        
0.234567901	  0.840 	1.750 	2.597 	11.020 	54.960 	65.985 	68.582        
0.24691358	  0.690 	1.630 	2.321 	11.320 	59.050 	70.372 	72.693        
0.259259259	  0.510 	1.460 	1.973 	11.700 	63.530 	75.229 	77.202        
0.271604938	  0.290 	1.250 	1.539 	12.070 	68.420 	80.488 	82.027        
0.283950617	  0.040 	0.970 	1.008 	12.400 	73.750 	86.149 	87.157        
0.296296296	  -0.250 	0.620 	0.365 	12.730 	79.500 	92.228 	92.593        
0.308641975	  -0.580 	0.180 	-0.400 	13.040 	85.680 	98.713 	98.313        
0.320987654	  -0.950 	-0.350 	-1.298 	13.350 	92.260 	105.613 	104.315     
0.333333333	  -1.360 	-0.980 	-2.334 	13.670 	99.680 	113.351 	111.017     
0.345679012	  -1.790 	-1.710 	-3.506 	14.000 	107.040 	121.031 	117.526   
0.358024691	  -2.250 	-2.550 	-4.804 	14.310 	114.540 	128.848 	124.044   
0.37037037	  -2.720 	-3.490 	-6.207 	14.560 	122.140 	136.690 	130.483   
0.382716049	  -3.180 	-4.500 	-7.681 	14.750 	129.670 	144.421 	136.740   
0.395061728	  -3.610 	-5.560 	-9.176 	15.070 	136.980 	152.055 	142.879   
0.407407407	  -4.000 	-6.630 	-10.630 	15.650 	143.950 	159.598 	148.968 
0.419753086	  -4.330 	-7.640 	-11.968 	16.450 	150.380 	166.827 	154.859 
0.432098765	  -4.570 	-8.540 	-13.109 	17.400 	156.090 	173.490 	160.381 
0.444444444	  -4.720 	-9.250 	-13.974 	18.400 	160.880 	179.279 	165.305 
0.456790123	  -4.770 	-9.730 	-14.494 	19.380 	164.530 	183.914 	169.419 
0.469135802	  -4.710 	-9.920 	-14.621 	20.150 	166.680 	186.830 	172.208 
0.481481481	  -4.540 	-9.790 	-14.332 	20.490 	167.680 	188.176 	173.843 
0.49382716	  -4.290 	-9.340 	-13.636 	20.550 	167.130 	187.676 	174.040 
0.50617284	  -3.970 	-8.600 	-12.572 	20.510 	165.160 	185.674 	173.102 
0.518518519	  -3.590 	-7.610 	-11.206 	20.560 	161.880 	182.444 	171.237 
0.530864198	  -3.180 	-6.440 	-9.621 	20.860 	157.470 	178.337 	168.716   
0.543209877	  -2.760 	-5.150 	-7.905 	21.580 	152.150 	173.723 	165.819   
0.555555556	  -2.340 	-3.810 	-6.146 	22.450 	146.150 	168.592 	162.446   
0.567901235	  -1.930 	-2.490 	-4.422 	23.190 	139.660 	162.850 	158.428   
0.580246914	  -1.550 	-1.250 	-2.794 	23.560 	132.850 	156.403 	153.609   
0.592592593	  -1.190 	-0.110 	-1.307 	23.560 	125.830 	149.394 	148.087   
0.604938272	  -0.880 	0.890 	0.013 	23.180 	118.750 	141.925 	141.938   
0.617283951	  -0.590 	1.750 	1.151 	22.500 	111.640 	134.132 	135.283   
0.62962963	  -0.350 	2.450 	2.109 	21.630 	104.420 	126.052 	128.161   
0.641975309	  -0.130 	3.020 	2.895 	20.650 	97.160 	117.810 	120.704     
0.654320988	  0.060 	3.470 	3.522 	19.730 	90.770 	110.495 	114.016     
0.666666667	  0.210 	3.790 	4.008 	18.830 	84.730 	103.563 	107.571     
0.679012346	  0.350 	4.020 	4.371 	17.980 	79.050 	97.034 	101.406       
0.691358025	  0.460 	4.170 	4.631 	17.200 	73.740 	90.942 	95.573        
0.703703704	  0.560 	4.240 	4.803 	16.490 	68.800 	85.286 	90.090        
0.716049383	  0.640 	4.260 	4.905 	15.840 	64.220 	80.055 	84.960        
0.728395062	  0.710 	4.240 	4.950 	15.170 	59.970 	75.145 	80.094        
0.740740741	  0.770 	4.180 	4.949 	14.590 	56.050 	70.640 	75.589        
0.75308642	  0.810 	4.100 	4.913 	14.070 	52.450 	66.522 	71.435        
0.765432099	  0.860 	4.000 	4.852 	13.580 	49.140 	62.724 	67.576        
0.777777778	  0.890 	3.880 	4.771 	13.110 	46.120 	59.232 	64.003        
0.790123457	  0.920 	3.760 	4.677 	12.670 	43.350 	56.016 	60.692        
0.802469136	  0.940 	3.630 	4.574 	12.240 	40.760 	53.006 	57.580        
0.814814815	  0.970 	3.500 	4.466 	11.830 	38.580 	50.405 	54.871        
0.827160494	  0.990 	3.370 	4.357 	11.470 	36.470 	47.947 	52.304        
0.839506173	  1.000 	3.240 	4.249 	11.160 	34.580 	45.739 	49.988        
0.851851852	  1.020 	3.120 	4.143 	10.880 	32.880 	43.763 	47.906        
0.864197531	  1.040 	3.000 	4.040 	10.640 	31.370 	42.009 	46.049        
0.87654321	  1.050 	2.890 	3.945 	10.440 	30.020 	40.462 	44.406        
0.888888889	  1.070 	2.790 	3.856 	10.270 	28.840 	39.104 	42.961        
0.901234568	  1.080 	2.690 	3.774 	10.120 	27.810 	37.930 	41.703        
0.913580247	  1.100 	2.600 	3.697 	10.000 	26.920 	36.922 	40.620        
0.925925926	  1.120 	2.510 	3.627 	9.890 	26.190 	36.078 	39.706        
0.938271605	  1.130 	2.430 	3.565 	9.810 	25.590 	35.399 	38.964        
0.950617284	  1.150 	2.360 	3.512 	9.750 	25.140 	34.893 	38.406        
0.962962963	  1.170 	2.300 	3.466 	9.730 	24.830 	34.564 	38.030        
0.975308642	  1.180 	2.240 	3.428 	9.730 	24.660 	34.394 	37.822        
0.987654321	  1.200 	2.190 	3.396 	9.760 	24.590 	34.352 	37.748        
1	            1.220 	2.150 	3.372 	9.810 	24.500 	34.311 	37.682        
