  TITLE = "SPECTRUM" 
  VARIABLES = "TIME","P_TOTAL"
  ZONE I=          201 ,F=POINT 
0                      -1.1143
0.005                  -1.1471
0.01                   -1.179
0.015                  -1.2099
0.02                   -1.2398
0.025                  -1.2688
0.03                   -1.2968
0.035                  -1.3239
0.04                   -1.3501
0.045                  -1.3752
0.05                 	-1.3995
0.055                	-1.4227
0.06                 	-1.4449
0.065                	-1.4662
0.07                 	-1.4864
0.075                	-1.5056
0.08                 	-1.5237
0.085                	-1.5407
0.09                 	-1.5566
0.095                	-1.5714
0.1                  	-1.585
0.105                	-1.5974
0.11                 	-1.6085
0.115                	-1.6183
0.12                 	-1.6267
0.125                	-1.6337
0.13                 	-1.6393
0.135                	-1.6433
0.14                 	-1.6457
0.145                	-1.6464
0.15                 	-1.6454
0.155                	-1.6425
0.16                 	-1.6377
0.165                	-1.6308
0.17                 	-1.6217
0.175                	-1.6104
0.18                 	-1.5966
0.185                	-1.5803
0.19                 	-1.5614
0.195                	-1.5395
0.2                  	-1.5146
0.205                	-1.4864
0.21                 	-1.4549
0.215                	-1.4196
0.22                 	-1.3805
0.225                	-1.3372
0.23                 	-1.2894
0.235                	-1.2369
0.24                 	-1.1794
0.245                	-1.1164
0.25                 	-1.0477
0.255                	-0.9727
0.26                 	-0.891
0.265                	-0.8022
0.27                 	-0.7058
0.275                	-0.6011
0.28                 	-0.4876
0.285                	-0.3646
0.29                 	-0.2314
0.295                	-0.0871
0.3                  	0.0689
0.305                	0.2375
0.31                 	0.4198
0.315                	0.6168
0.32                 	0.8295
0.325                	1.059
0.33                 	1.3066
0.335                	1.5734
0.34                 	1.8608
0.345                	2.1701
0.35                 	2.5025
0.355                	2.8592
0.36                 	3.2412
0.365                	3.6494
0.37                 	4.0843
0.375                	4.5456
0.38                 	5.0326
0.385                	5.5432
0.39                 	6.074
0.395                	6.6192
0.4                  	7.1703
0.405                	7.7148
0.41                 	8.235
0.415                	8.7065
0.42                 	9.0963
0.425                	9.3609
0.43                 	9.4441
0.435                	9.2765
0.44                 	8.7753
0.445                	7.8493
0.45                 	6.4077
0.455                	4.3785
0.46                 	1.7384
0.465                	-1.4672
0.47                 	-5.0841
0.475                	-8.8245
0.48                 	-12.3143
0.485                	-15.1421
0.49                 	-16.9477
0.495                	-17.5254
0.5                  	-16.8547
0.505                	-15.1026
0.51                 	-12.5623
0.515                	-9.5726
0.52                 	-6.4474
0.525                	-3.4313
0.53                 	-0.6859
0.535                	1.7025
0.54                 	3.7056
0.545                	5.3333
0.55                 	6.6177
0.555                	7.6009
0.56                 	8.3276
0.565                	8.8405
0.57                 	9.1778
0.575                	9.3731
0.58                 	9.4546
0.585                	9.4458
0.59                 	9.3662
0.595                	9.2316
0.6                  	9.0548
0.605                	8.8463
0.61                 	8.6144
0.615                	8.3658
0.62                 	8.1058
0.625                	7.8387
0.63                 	7.5679
0.635                	7.2961
0.64                 	7.0252
0.645                	6.757
0.65                 	6.4927
0.655                	6.2331
0.66                 	5.9792
0.665                	5.7313
0.67                 	5.4898
0.675                	5.2549
0.68                 	5.0268
0.685                	4.8056
0.69                 	4.5911
0.695                	4.3834
0.7                  	4.1824
0.705                	3.9878
0.71                 	3.7997
0.715                	3.6178
0.72                 	3.4419
0.725                	3.2719
0.73                 	3.1076
0.735                	2.9488
0.74                 	2.7953
0.745                	2.6469
0.75                 	2.5034
0.755                	2.3647
0.76                 	2.2305
0.765                	2.1007
0.77                 	1.9752
0.775                	1.8537
0.78                 	1.7361
0.785                	1.6223
0.79                 	1.5121
0.795                	1.4054
0.8                  	1.302
0.805                	1.2018
0.81                 	1.1047
0.815                	1.0106
0.82                 	0.9193
0.825                	0.8307
0.83                 	0.7448
0.835                	0.6614
0.84                 	0.5804
0.845                	0.5018
0.85                 	0.4255
0.855                	0.3513
0.86                 	0.2792
0.865                	0.2092
0.87                 	0.1411
0.875                	0.0749
0.88                 	0.0105
0.885                	-0.0522
0.89                 	-0.1132
0.895                	-0.1725
0.9                  	-0.2302
0.905                	-0.2864
0.91                 	-0.3412
0.915                	-0.3945
0.92                 	-0.4463
0.925                	-0.4969
0.93                 	-0.5461
0.935                	-0.5941
0.94                 	-0.6408
0.945                	-0.6863
0.95                 	-0.7306
0.955                	-0.7738
0.96                 	-0.8159
0.965                	-0.8568
0.97                 	-0.8967
0.975                	-0.9355
0.98                 	-0.9733
0.985                	-1.01
0.99                 	-1.0458
0.995                	-1.0806
1                    	-1.1143 
                