  TITLE = "SPECTRUM" 
  VARIABLES = "frequence","noise level(DB)"
  ZONE I=          30 ,F=POINT 
  43.2 	99.8 
86.4 	92.2 
129.6 	98.8 
172.8 	100.0 
216.0 	99.7 
259.2 	98.6 
302.4 	97.1 
345.6 	95.3 
388.8 	93.4 
432.0 	91.3 
475.2 	89.1 
518.4 	86.8 
561.6 	84.5 
604.8 	82.1 
648.0 	79.6 
691.2 	77.1 
734.4 	74.6 
777.6 	72.0 
820.8 	69.4 
864.0 	66.7 
907.2 	64.0 
950.4 	61.3 
993.6 	58.6 
1036.8 	55.8 
1080.0 	53.0 
1123.2 	50.2 
1166.4 	47.3 
1209.6 	44.4 
1252.8 	41.5 
1296.0 	38.5 
