  TITLE = "SPECTRUM" 
  VARIABLES = "time","PT"
  ZONE I=          201 ,F=POINT 
0.004975124										1.025    
0.009950249                   1.022    
0.014925373                   1.020    
0.019900498                   1.019    
0.024875622                   1.018    
0.029850746                   1.018    
0.034825871                   1.019    
0.039800995                   1.020    
0.044776119                   1.022    
0.049751244                   1.024    
0.054726368                   1.028    
0.059701493                   1.032    
0.064676617                   1.037    
0.069651741                   1.042    
0.074626866                   1.049    
0.07960199                    1.056    
0.084577114                   1.064    
0.089552239                   1.073    
0.094527363                   1.083    
0.099502488                   1.093    
0.104477612                   1.105    
0.109452736                   1.117    
0.114427861                   1.131    
0.119402985                   1.145    
0.124378109                   1.161    
0.129353234                   1.177    
0.134328358                   1.195    
0.139303483                   1.214    
0.144278607                   1.234    
0.149253731                   1.256    
0.154228856                   1.278    
0.15920398                    1.303    
0.164179104                   1.328    
0.169154229                   1.356    
0.174129353                   1.385    
0.179104478                   1.415    
0.184079602                   1.448    
0.189054726                   1.482    
0.194029851                   1.519    
0.199004975                   1.557    
0.2039801                     1.598    
0.208955224                   1.642    
0.213930348                   1.687    
0.218905473                   1.736    
0.223880597                   1.788    
0.228855721                   1.843    
0.233830846                   1.901    
0.23880597                    1.962    
0.243781095                   2.028    
0.248756219                   2.098    
0.253731343                   2.172    
0.258706468                   2.251    
0.263681592                   2.335    
0.268656716                   2.425    
0.273631841                   2.521    
0.278606965                   2.624    
0.28358209                    2.734    
0.288557214                   2.851    
0.293532338                   2.978    
0.298507463                   3.113    
0.303482587                   3.259    
0.308457711                   3.416    
0.313432836                   3.586    
0.31840796                    3.769    
0.323383085                   3.967    
0.328358209                   4.182    
0.333333333                   4.416    
0.338308458                   4.670    
0.343283582                   4.948    
0.348258706                   5.251    
0.353233831                   5.584    
0.358208955                   5.949    
0.36318408                    6.352    
0.368159204                   6.796    
0.373134328                   7.288    
0.378109453                   7.834    
0.383084577                   8.443    
0.388059701                   9.123    
0.393034826                   9.885    
0.39800995                    10.741   
0.402985075                   11.706   
0.407960199                   12.798   
0.412935323                   14.034   
0.417910448                   15.436   
0.422885572                   17.028   
0.427860697                   18.829   
0.432835821                   20.856   
0.437810945                   23.104   
0.44278607                    25.528   
0.447761194                   27.995   
0.452736318                   30.178   
0.457711443                   31.354   
0.462686567                   30.008   
0.467661692                   23.143   
0.472636816                   5.606    
0.47761194                    -28.847  
0.482587065                   -81.045  
0.487562189                   -136.903 
0.492537313                   -171.426 
0.497512438                   -169.360 
0.502487562                   -135.842 
0.507462687                   -89.499  
0.512437811                   -48.040  
0.517412935                   -19.421  
0.52238806                    -2.455   
0.527363184                   6.712    
0.532338308                   11.303   
0.537313433                   13.354   
0.542288557                   14.027   
0.547263682                   13.964   
0.552238806                   13.523   
0.55721393                    12.899   
0.562189055                   12.201   
0.567164179                   11.489   
0.572139303                   10.794   
0.577114428                   10.134   
0.582089552                   9.515    
0.587064677                   8.940    
0.592039801                   8.409    
0.597014925                   7.920    
0.60199005                    7.469    
0.606965174                   7.055    
0.611940299                   6.673    
0.616915423                   6.322    
0.621890547                   5.998    
0.626865672                   5.699    
0.631840796                   5.423    
0.63681592                    5.166    
0.641791045                   4.929    
0.646766169                   4.708    
0.651741294                   4.503    
0.656716418                   4.312    
0.661691542                   4.133    
0.666666667                   3.967    
0.671641791                   3.811    
0.676616915                   3.664    
0.68159204                    3.527    
0.686567164                   3.398    
0.691542289                   3.277    
0.696517413                   3.163    
0.701492537                   3.055    
0.706467662                   2.953    
0.711442786                   2.857    
0.71641791                    2.766    
0.721393035                   2.679    
0.726368159                   2.598    
0.731343284                   2.520    
0.736318408                   2.446    
0.741293532                   2.376    
0.746268657                   2.310    
0.751243781                   2.246    
0.756218905                   2.186    
0.76119403                    2.128    
0.766169154                   2.073    
0.771144279                   2.021    
0.776119403                   1.970    
0.781094527                   1.922    
0.786069652                   1.877    
0.791044776                   1.833    
0.7960199                     1.791    
0.800995025                   1.750    
0.805970149                   1.712    
0.810945274                   1.675    
0.815920398                   1.640    
0.820895522                   1.606    
0.825870647                   1.573    
0.830845771                   1.542    
0.835820896                   1.512    
0.84079602                    1.483    
0.845771144                   1.456    
0.850746269                   1.429    
0.855721393                   1.404    
0.860696517                   1.380    
0.865671642                   1.356    
0.870646766                   1.334    
0.875621891                   1.312    
0.880597015                   1.292    
0.885572139                   1.272    
0.890547264                   1.254    
0.895522388                   1.236    
0.900497512                   1.219    
0.905472637                   1.202    
0.910447761                   1.187    
0.915422886                   1.172    
0.92039801                    1.158    
0.925373134                   1.144    
0.930348259                   1.132    
0.935323383                   1.120    
0.940298507                   1.109    
0.945273632                   1.098    
0.950248756                   1.088    
0.955223881                   1.079    
0.960199005                   1.070    
0.965174129                   1.062    
0.970149254                   1.055    
0.975124378                   1.049    
0.980099502                   1.043    
0.985074627                   1.037    
0.990049751                   1.033    
0.995024876                   1.028    
1                             1.025    
